variables="v1","v2","v3","v4","v5","v6","v7","v8","v9","v10","v11","v12","v13","v14"
zone i= 23
0.05		0.481298428	0.047295274	-0.003179	0.02172571	0.014330239	0.00430183	0.000452612	-0.000863975	-0.755094056	0.00685114	-0.002991554	-0.002113836	0.000892457
0.066666667	0.511506889	0.045028613	-0.006431166	0.021438712	0.013577496	0.006760288	0.000215158	-0.001746903	-0.776564367	0.005967617	-0.003299296	-0.001297626	0.001376241
0.083333333	0.534483338	0.047586446	-0.010040204	0.022584687	0.012947819	0.008704135	0.000410249	-0.002956468	-0.788898978	0.005451706	-0.003626614	-0.000991751	0.001630595
0.116666667	0.566695162	0.045934979	-0.018406543	0.024479762	0.012293657	0.010706772	0.000619833	-0.005052305	-0.807535848	0.005012761	-0.004354454	-0.000698657	0.002060982
0.166666667	0.624151837	0.042073592	-0.026239814	0.029056608	0.010808367	0.010987314	0.000498319	-0.006489291	-0.832970827	0.00486594	-0.005602121	-0.000304839	0.002379491
0.25		0.708884102	0.040723749	-0.028637875	0.031010514	0.008573124	0.008948219	0.000823842	-0.006423518	-0.866304393	0.005071851	-0.006637867	-0.000199031	0.002315088
0.333333333	0.790244248	0.03397304	-0.028366115	0.029207825	0.006963631	0.006530241	0.000884042	-0.004557331	-0.894928774	0.005246675	-0.006832967	-0.000107535	0.002018836
0.5		0.88307582	0.030432689	-0.020862839	0.023975036	0.004832602	0.004802339	0.000907453	-0.003597482	-0.931955807	0.005024755	-0.006624337	-0.00012619	0.002005363
0.666666667	0.938160814	0.023777545	-0.017777911	0.019884331	0.004071328	0.004354681	0.00092529	-0.003224022	-0.959385255	0.004646789	-0.005718876	-0.000267777	0.001944761
0.833333333	0.965697711	0.019654849	-0.017976505	0.018913526	0.003503812	0.003896976	0.000752495	-0.002828265	-0.982473046	0.004290316	-0.005638023	-0.000193751	0.001740795
1.0		1.0		0.01481393	-0.017456875	0.016737218	0.003081449	0.003728809	0.000890731	-0.002785903	-1.0		0.004098851	-0.005009954	-0.000244532	0.001745286
1.166666667	1.018572785	0.011733481	-0.01453321	0.014551843	0.003074656	0.003716054	0.000945356	-0.002937516	-1.012546075	0.003763155	-0.004306173	-0.000308047	0.001809441
1.333333333	1.033779672	0.009744553	-0.012118723	0.012843818	0.002759756	0.003599382	0.000666655	-0.002834954	-1.023142956	0.003506267	-0.003801603	-0.000261065	0.001732899
1.5		1.048218812	0.006474468	-0.012312838	0.012038651	0.002420404	0.003508233	0.000810465	-0.002694488	-1.034906965	0.003297174	-0.003532684	-0.000367613	0.001648312
1.666666667	1.06098558	0.005695024	-0.012136642	0.011029666	0.002226967	0.003234661	0.000681147	-0.002666618	-1.045305712	0.003170813	-0.00326763	-0.000315893	0.001649989
1.833333333	1.074408106	0.003895731	-0.00977591	0.009947087	0.002108514	0.003010578	0.000716821	-0.00251389	-1.055346545	0.003040173	-0.003074627	-0.000313919	0.001557112
2		1.085915617	0.002756427	-0.008199102	0.009795272	0.001878987	0.003009594	0.000646588	-0.002497168	-1.063563776	0.002876099	-0.003003562	-0.000268073	0.001570387
2.166666667	1.092947294	0.00210241	-0.006065334	0.008974558	0.001635035	0.002651183	0.000499434	-0.002270862	-1.073330914	0.002709738	-0.002850329	-0.00022726	0.00150781
2.333333333	1.103817711	0.001606672	-0.005948866	0.008081552	0.001472294	0.002387751	0.000430315	-0.001995504	-1.08355077	0.002501683	-0.002571621	-0.000187039	0.001352997
2.5		1.112958518	0.000710758	-0.003252166	0.006969197	0.001211474	0.002226122	0.000406905	-0.001944223	-1.092316569	0.002305192	-0.002293653	-0.000184571	0.001318304
2.666666667	1.128595942	0.000232938	-0.002899773	0.005547682	0.001067783	0.001884557	0.000411364	-0.001400198	-1.102384547	0.002054025	-0.001745203	-0.000216896	0.001117644
3.333333333	1.151347168	0.000810802	-0.001718661	0.001976887	0.000451291	0.001148088	0.000161647	-0.000775906	-1.132457106	0.001080696	-0.000616719	-0.000076	0.000708231
4.0		1.156089288	0.00065551	-0.001330432	0.000685749	0.000149663	0.000475004	0.000026755	-0.000265324	-1.149058752	0.000381597	-0.000107543	-0.000001332	0.000282187
