variables="v1","v2","v3","v4","v5","v6","v7","v8","v9","v10","v11","v12","v13","v14"
zone i= 20
0.01875		0.329		0.040		-0.006		0.0145		0.0119		0.0037		0.0021		-0.0010		-0.7277		0.0565		-0.0016		0.0003		0.0006
0.03125		0.403		0.040		-0.011		0.0164		0.0109		0.0072		0.0017		-0.0030		-0.7470		0.0499		-0.0019		0.0000		0.0010
0.04375		0.433		0.040		-0.016		0.0180		0.0107		0.0089		0.0019		-0.0047		-0.7613		0.0478		-0.0023		-0.0001		0.0013
0.0625		0.476		0.037		-0.023		0.0214		0.0096		0.0089		0.0018		-0.0058		-0.7789		0.0475		-0.0030		-0.0003		0.0015
0.09375		0.556		0.033		-0.024		0.0247		0.0077		0.0071		0.0018		-0.0053		-0.8060		0.0493		-0.0038		-0.0004		0.0015
0.125		0.625		0.029		-0.021		0.0248		0.0063		0.0053		0.0014		-0.0042		-0.8286		0.0500		-0.0045		-0.0002		0.0014
0.1875		0.723		0.025		-0.012		0.0208		0.0044		0.0038		0.0013		-0.0030		-0.8591		0.0495		-0.0044		-0.0003		0.0014
0.25		0.772		0.023		-0.009		0.0190		0.0038		0.0034		0.0013		-0.0028		-0.8799		0.0488		-0.0043		-0.0004		0.0014
0.3125		0.807		0.023		-0.005		0.0178		0.0033		0.0033		0.0013		-0.0028		-0.8968		0.0466		-0.0041		-0.0004		0.0013
0.375		0.833		0.022		-0.002		0.0159		0.0031		0.0033		0.0010		-0.0028		-0.9085		0.0448		-0.0036		-0.0003		0.0014
0.4375		0.850		0.022		-0.001		0.0157		0.0028		0.0031		0.0009		-0.0027		-0.9180		0.0443		-0.0036		-0.0003		0.0013
0.5		0.872		0.021		0.001		0.0145		0.0026		0.0030		0.0009		-0.0025		-0.9304		0.0429		-0.0034		-0.0003		0.0013
0.625		0.906		0.020		0.003		0.0131		0.0021		0.0027		0.0009		-0.0025		-0.9500		0.0400		-0.0030		-0.0003		0.0012
0.75		0.945		0.019		0.005		0.0114		0.0018		0.0023		0.0007		-0.0021		-0.9672		0.0379		-0.0026		-0.0003		0.0011
0.875		0.971		0.017		0.005		0.0101		0.0014		0.0018		0.0006		-0.0017		-0.9850		0.0361		-0.0025		-0.0003		0.0009
1		1.000		0.014		0.006		0.0074		0.0010		0.0014		0.0005		-0.0013		-1.0008		0.0322		-0.0018		-0.0002		0.0007
1.25		1.040		0.010		0.007		0.0030		0.0004		0.0008		0.0002		-0.0005		-1.0254		0.0236		-0.0008		-0.0001		0.0004
1.5		1.055		0.007		0.008		0.0010		0.0002		0.0004		0.0001		-0.0002		-1.0399		0.0150		-0.0002		0.0000		0.0002
1.75		1.050		0.006		0.009		0.0004		0.0001		0.0002		0.0000		0.0000		-1.0455		0.0079		0.0000		0.0000		0.0000
2		1.041		0.004		0.009		0.0002		0.0000		0.0001		0.0000		0.0000		-1.0459		0.0043		0.0000		0.0000		0.0000
