variables="v1","v2","v3","v4","v5","v6","v7","v8","v9"
zone i= 19
0.005	0.370120775	0.00189	  -0.0035	0.02127249	0.01481623	0.003873129	-0.00731167	-0.000713152
0.01	0.381644394	0.0039	  -0.007	0.020684134	0.01549753	0.003978081	-0.007114913	-0.000973923
0.015	0.3987951	0.0065	  -0.01		0.020756113	0.016268288	0.004169344	-0.006911618	-0.001234694
0.025	0.432250301	0.009	  -0.0176	0.022462721	0.017225446	0.004638967	-0.006404278	-0.001756236
0.05	0.455888122	0.01891	  -0.03518	0.025508613	0.01895094	0.006330456	-0.004805991	-0.003060091
0.075	0.486617459	0.01	  -0.05		0.027083461	0.019405979	0.008612401	-0.002915257	-0.004363946
0.1	0.521191474	0.02603	  -0.055	0.030292596	0.019474237	0.010568766	-0.002827236	-0.005636054
0.15	0.574120409	0.02603	  -0.057	0.035332729	0.018995674	0.012676107	-0.003573987	-0.006805556
0.25	0.650462102	0.023	  -0.0306	0.040857726	0.018246122	0.014383769	-0.00618519	-0.008545351
0.375	0.750307046	0.02162	  -0.00419	0.044136716	0.017420974	0.015409533	-0.004732385	-0.008758503
0.5	0.813000298	0.02067	  0.00723	0.047077875	0.016336391	0.01555141	-0.005311485	-0.008739796
0.625	0.869951202	0.01972	  0.01865	0.046571918	0.01573954	0.015301419	6.65802E-05	-0.008688776
0.75	0.929159947	0.01982	  0.02394	0.043788405	0.015396663	0.014906872	-0.002437517	-0.00910034
1	0.995892865	0.01676	  0.01373	0.038428591	0.014019783	0.014363676	-0.002672745	-0.008831066
1.25	1.055643561	0.01498	  0.02651	0.03505274	0.012512481	0.013267147	-0.001793308	-0.007896259
1.5	1.122499515	0.01608	  0.02611	0.033505664	0.011463017	0.012424235	-0.001901404	-0.007287982
2	1.209984276	0.00985	  0.03107	0.025227604	0.008780703	0.011118512	-0.001487629	-0.006477891
2.5	1.286399455	-0.00249  0.03881	0.015683759	0.006557071	0.008887417	0.001017467	-0.003746599
3	1.310435882	-0.007	  0.03626	0.009521265	0.004990581	0.007372587	0.000154542	-0.002201814
