 variables=Z,Y,U,V,W,T,UU,VV,WW,UV,UW,VW,TT,UT,VT,WT
 ZONE I =          96 , J=          54
  0.117187500000000       9.178681700000000E-003  2.567513400000000E-002
  2.354585600000000E-006  1.437755200000000E-004  2.171928900000000E-002
  1.221602800000000E-004  2.876851800000000E-008  2.564434600000000E-005
 -7.060428100000000E-007 -1.153788300000000E-007  9.427181500000001E-009
  9.807149900000000E-005  1.001227500000000E-004 -5.592510000000000E-007
 -3.332404700000000E-008
  0.351562500000000       9.178681700000000E-003  2.533036600000000E-002
 -2.329260100000000E-007  1.236423900000000E-004  2.144836400000000E-002
  1.294020900000000E-004  2.845682500000000E-008  2.636186900000000E-005
 -8.314857400000000E-007  1.138908600000000E-006 -2.564623500000000E-008
  1.020758900000000E-004  1.053375900000000E-004 -6.686643400000000E-007
  1.058003400000000E-006
  0.585937500000000       9.178681700000000E-003  2.504061900000000E-002
  9.449850800000000E-006  6.625023300000000E-006  2.118305300000000E-002
  1.221059700000000E-004  2.999094500000000E-008  2.550550600000000E-005
 -6.693098500000000E-007 -1.318728900000000E-006  4.165531200000000E-008
  9.619856900000001E-005  9.909484900000001E-005 -4.829935200000000E-007
 -1.536096100000000E-006
  0.820312500000000       9.178681700000000E-003  2.521875700000000E-002
  5.836174000000000E-006 -1.930342100000000E-004  2.131948100000000E-002
  1.255111300000000E-004  2.910698100000000E-008  2.387145500000000E-005
 -7.679886200000000E-007 -5.284062500000000E-006  2.153020500000000E-008
  1.016937500000000E-004  1.029035600000000E-004 -6.321164200000000E-007
 -4.965330600000000E-006
   1.05468750000000       9.178681700000000E-003  2.567003500000000E-002
 -2.805678600000000E-006 -2.378632700000000E-004  2.171228500000000E-002
  1.387917500000000E-004  3.116466000000000E-008  2.457723200000000E-005
 -9.565256499999999E-007 -3.083082700000000E-006 -7.953215899999999E-008
  1.140587700000000E-004  1.156706500000000E-004 -7.985767900000001E-007
 -2.382825200000000E-006
   1.28906250000000       9.178681700000000E-003  2.572485400000000E-002
 -4.908708100000000E-006 -1.403224500000000E-004  2.175940000000000E-002
  1.369436300000000E-004  3.053067700000000E-008  2.588318500000000E-005
 -9.844829400000000E-007 -1.581383200000000E-006  4.391191400000000E-008
  1.112623400000000E-004  1.129571700000000E-004 -7.796024300000000E-007
 -1.171467300000000E-006
   1.52343750000000       9.178681700000000E-003  2.558761800000000E-002
  8.854250700000000E-006 -1.787455700000000E-004  2.177888000000000E-002
  1.249850800000000E-004  2.677821100000000E-008  2.537780700000000E-005
 -6.387719100000000E-007 -1.513056000000000E-006 -3.771306100000000E-009
  1.004034900000000E-004  1.027774000000000E-004 -4.661702900000000E-007
 -1.321502200000000E-006
   1.75781250000000       9.178681700000000E-003  2.628492700000000E-002
 -6.812945600000000E-006 -1.929995900000000E-004  2.230740800000000E-002
  1.369926500000000E-004  3.185246000000000E-008  2.418411000000000E-005
 -9.957670700000000E-007 -1.687963200000000E-006  2.946003200000000E-008
  1.134638300000000E-004  1.135348100000000E-004 -8.254724000000000E-007
 -2.058902400000000E-006
   1.99218750000000       9.178681700000000E-003  2.663118000000000E-002
 -5.993529800000000E-006 -2.829234000000000E-005  2.262054100000000E-002
  1.206233200000000E-004  2.630630700000000E-008  2.456098000000000E-005
 -6.850869100000000E-007  3.827829500000000E-007 -1.700205600000000E-008
  1.065770300000000E-004  1.038986600000000E-004 -6.054747200000000E-007
  3.731330000000000E-007
   2.22656250000000       9.178681700000000E-003  2.694132600000000E-002
 -8.007485699999999E-006  1.371700400000000E-004  2.280731000000000E-002
  1.321836700000000E-004  3.174831900000000E-008  2.732700600000000E-005
 -9.407019800000000E-007  2.450322900000000E-006 -1.173570900000000E-007
  1.084157300000000E-004  1.102086300000000E-004 -7.893466700000000E-007
  2.648430400000000E-006
   2.46093750000000       9.178681700000000E-003  2.691623700000000E-002
 -3.708135900000000E-006  2.659886300000000E-004  2.282832500000000E-002
  1.380099600000000E-004  3.175633500000000E-008  2.958064500000000E-005
 -9.483451300000000E-007 -3.689874500000000E-007  2.850516400000000E-008
  1.143288000000000E-004  1.157123400000000E-004 -7.917138800000000E-007
 -3.132924400000000E-008
   2.69531250000000       9.178681700000000E-003  2.650617300000000E-002
 -1.552442000000000E-006  3.277558600000000E-004  2.252936100000000E-002
  1.368764200000000E-004  3.234460400000000E-008  2.740626000000000E-005
 -9.107290700000000E-007 -3.163305000000000E-007  6.209242000000000E-008
  1.130209400000000E-004  1.142748800000000E-004 -7.237432000000000E-007
 -5.483008000000000E-007
   2.92968750000000       9.178681700000000E-003  2.621595700000000E-002
 -3.160245600000000E-006  4.032146800000000E-004  2.231852500000000E-002
  1.331262000000000E-004  3.351202100000000E-008  2.547129400000000E-005
 -9.836693400000000E-007  2.400339400000000E-006  3.011588500000000E-008
  1.179690600000000E-004  1.148210200000000E-004 -8.804371000000000E-007
  2.091500500000000E-006
   3.16406250000000       9.178681700000000E-003  2.551398400000000E-002
  9.121623500000000E-006  3.523594100000000E-004  2.168125500000000E-002
  1.136822600000000E-004  2.968466200000000E-008  2.682558300000000E-005
 -6.224570400000000E-007  2.858148600000000E-006 -2.605720900000000E-008
  9.534434900000000E-005  9.448986100000000E-005 -4.775169500000000E-007
  2.991000100000000E-006
   3.39843750000000       9.178681700000000E-003  2.530962200000000E-002
  9.494308300000000E-006  1.174122500000000E-004  2.148835300000000E-002
  1.233515200000000E-004  2.939457600000000E-008  2.620012100000000E-005
 -7.487519800000000E-007 -1.135342200000000E-006  4.922374300000000E-008
  9.887760600000000E-005  1.008825300000000E-004 -6.027903400000000E-007
 -1.381815200000000E-006
   3.63281250000000       9.178681700000000E-003  2.531568800000000E-002
  5.295091300000000E-006 -8.472858900000000E-005  2.150334800000000E-002
  1.234983500000000E-004  3.012708700000000E-008  2.413072700000000E-005
 -8.391462200000000E-007 -2.620443500000000E-006  2.338002400000000E-008
  9.783003299999999E-005  9.996195000000000E-005 -6.402354900000000E-007
 -2.052516900000000E-006
   3.86718750000000       9.178681700000000E-003  2.574591900000000E-002
  1.285939400000000E-006 -1.740160100000000E-004  2.184521800000000E-002
  1.317697900000000E-004  3.158855900000000E-008  2.391264200000000E-005
 -8.976937100000001E-007 -1.536827700000000E-006 -3.271665700000000E-008
  1.061296100000000E-004  1.076186000000000E-004 -7.357168600000000E-007
 -2.002719300000000E-006
   4.10156250000000       9.178681700000000E-003  2.646772700000000E-002
 -7.306664400000000E-006 -8.399538000000000E-005  2.228411300000000E-002
  1.417255600000000E-004  2.908099300000000E-008  2.456816200000000E-005
 -9.079009100000000E-007 -1.740954200000000E-006 -2.226329500000000E-009
  1.104067100000000E-004  1.140407100000000E-004 -7.354572200000000E-007
 -2.175172400000000E-006
   4.33593750000000       9.178681700000000E-003  2.640769900000000E-002
 -3.829094700000000E-006  8.756246800000000E-005  2.223717600000000E-002
  1.358835400000000E-004  2.936603300000000E-008  2.428144900000000E-005
 -8.447048400000000E-007  5.916928400000000E-007  2.987398600000000E-009
  1.078792800000000E-004  1.109223200000000E-004 -7.190968600000000E-007
  7.692672100000000E-007
   4.57031250000000       9.178681700000000E-003  2.624239400000000E-002
  6.874801700000000E-006  8.269367600000000E-005  2.210063400000000E-002
  1.235361400000000E-004  2.692339900000000E-008  2.514887100000000E-005
 -6.712472400000000E-007  1.571696800000000E-006 -1.523796600000000E-008
  9.635244500000000E-005  9.932572500000001E-005 -5.246053400000000E-007
  6.202585400000000E-007
   4.80468750000000       9.178681700000000E-003  2.659523800000000E-002
 -2.262801800000000E-006  4.506804500000000E-005  2.243117700000000E-002
  1.355603100000000E-004  3.171242400000000E-008  2.708983800000000E-005
 -7.825889400000000E-007 -1.916223600000000E-006 -7.210562900000000E-008
  1.086932300000000E-004  1.111914100000000E-004 -6.194550800000000E-007
 -2.730726200000000E-006
   5.03906250000000       9.178681700000000E-003  2.644402600000000E-002
 -4.248939900000000E-006  1.393184300000000E-004  2.239000100000000E-002
  1.504943900000000E-004  3.695203300000000E-008  2.722727000000000E-005
 -1.143211800000000E-006 -1.534577900000000E-006  2.596482700000000E-008
  1.236637400000000E-004  1.255512000000000E-004 -9.536795000000000E-007
 -2.253518900000000E-006
   5.27343750000000       9.178681700000000E-003  2.571389400000000E-002
  8.187911000000000E-006  9.319570799999999E-005  2.184866400000000E-002
  1.290792000000000E-004  3.122017100000000E-008  2.675239200000000E-005
 -7.771640300000000E-007 -3.548582800000000E-007  1.143621300000000E-008
  1.128040800000000E-004  1.102108900000000E-004 -6.979547900000000E-007
 -2.917536600000000E-007
   5.50781250000000       9.178681700000000E-003  2.582732900000000E-002
  1.416009100000000E-006 -3.217947900000000E-005  2.185808700000000E-002
  1.376895000000000E-004  3.117780000000000E-008  2.516978700000000E-005
 -8.967940000000000E-007 -1.623033200000000E-006  5.187102200000000E-008
  1.116233700000000E-004  1.137047100000000E-004 -7.113443500000000E-007
 -9.327115700000000E-007
   5.74218750000000       9.178681700000000E-003  2.608018100000000E-002
 -2.023344100000000E-007 -3.821533400000000E-005  2.206422300000000E-002
  1.349331800000000E-004  3.095522500000000E-008  2.502171300000000E-005
 -8.735787500000000E-007  1.362207800000000E-006 -2.094993600000000E-008
  1.091424600000000E-004  1.108079000000000E-004 -7.125157500000000E-007
  1.814446100000000E-006
   5.97656250000000       9.178681700000000E-003  2.584821200000000E-002
  7.936835000000001E-006 -1.222598200000000E-004  2.189273500000000E-002
  1.291739300000000E-004  2.936206900000000E-008  2.564216900000000E-005
 -6.916433900000000E-007 -2.177931500000000E-006  4.549236200000000E-009
  1.014158900000000E-004  1.045595200000000E-004 -5.060196600000000E-007
 -2.168624900000000E-006
   6.21093750000000       9.178681700000000E-003  2.583566400000000E-002
  2.380199800000000E-006 -2.413114700000000E-004  2.184417700000000E-002
  1.373896600000000E-004  2.911820200000000E-008  2.466246000000000E-005
 -9.058930500000000E-007 -2.430059700000000E-006  1.850760200000000E-008
  1.113762300000000E-004  1.131747200000000E-004 -7.361870300000000E-007
 -2.544739600000000E-006
   6.44531250000000       9.178681700000000E-003  2.574583500000000E-002
 -1.851776400000000E-006 -2.458646400000000E-004  2.188597200000000E-002
  1.202679000000000E-004  3.070824400000000E-008  2.486538600000000E-005
 -8.173372400000000E-007 -5.998552700000000E-007 -1.765150300000000E-008
  1.011299400000000E-004  9.973661300000000E-005 -6.322079000000000E-007
 -1.146551600000000E-006
   6.67968750000000       9.178681700000000E-003  2.609296800000000E-002
 -5.932735100000000E-006 -1.532626400000000E-004  2.223899400000000E-002
  1.309065300000000E-004  2.951799600000000E-008  2.497470300000000E-005
 -8.013225100000000E-007 -1.096526800000000E-006  3.908889000000000E-009
  1.090687300000000E-004  1.088728500000000E-004 -6.508426600000000E-007
 -9.754552599999999E-007
   6.91406250000000       9.178681700000000E-003  2.632984800000000E-002
 -8.217999200000000E-006  1.275056300000000E-005  2.239562900000000E-002
  1.339690400000000E-004  2.813129200000000E-008  2.538327900000000E-005
 -8.225445700000000E-007  1.975333100000000E-006 -3.101411500000000E-008
  1.092164400000000E-004  1.110958600000000E-004 -6.751811800000000E-007
  2.124793800000000E-006
   7.14843750000000       9.178681700000000E-003  2.633469900000000E-002
 -5.443406900000000E-007  1.126765400000000E-004  2.230661200000000E-002
  1.265427200000000E-004  2.579397100000000E-008  2.489933600000000E-005
 -7.124938500000000E-007  1.743249300000000E-007  5.265479700000000E-008
  9.958519899999999E-005  1.026483400000000E-004 -5.428041500000000E-007
  1.343690200000000E-007
   7.38281250000000       9.178681700000000E-003  2.601583900000000E-002
  3.823922000000000E-006  8.451967100000000E-005  2.209439900000000E-002
  1.158442300000000E-004  2.762403900000000E-008  2.302266600000000E-005
 -7.619353900000000E-007  9.017826800000001E-007  3.440827600000000E-009
  9.508562500000000E-005  9.611699800000000E-005 -6.132493900000000E-007
  2.636568900000000E-007
   7.61718750000000       9.178681700000000E-003  2.646188700000000E-002
 -4.621979300000000E-006  1.202977600000000E-004  2.242383100000000E-002
  1.374859300000000E-004  2.809368000000000E-008  2.489019700000000E-005
 -8.889311400000000E-007  4.130956000000000E-006 -1.059262800000000E-007
  1.085923000000000E-004  1.124439400000000E-004 -7.100274100000000E-007
  3.864699100000000E-006
   7.85156250000000       9.178681700000000E-003  2.662397700000000E-002
 -3.448396900000000E-006  2.392071000000000E-004  2.249204800000000E-002
  1.312181300000000E-004  2.708171300000000E-008  2.613120400000000E-005
 -8.006142100000000E-007  3.479797900000000E-006  4.429826800000000E-008
  1.010308000000000E-004  1.050920000000000E-004 -6.089903300000000E-007
  3.401368700000000E-006
   8.08593750000000       9.178681700000000E-003  2.661058400000000E-002
 -1.515458500000000E-006  3.131423300000000E-004  2.244805800000000E-002
  1.226939700000000E-004  2.834151500000000E-008  2.467119300000000E-005
 -7.680295800000000E-007  4.268089000000000E-006 -1.399659400000000E-009
  9.897000700000000E-005  1.011336100000000E-004 -6.329285200000000E-007
  3.520692400000000E-006
   8.32031250000000       9.178681700000000E-003  2.621535200000000E-002
 -2.798938200000000E-006  3.724766300000000E-004  2.211481600000000E-002
  1.299483300000000E-004  2.747483800000000E-008  2.513109600000000E-005
 -8.302428200000000E-007  3.592269000000000E-006 -1.184641600000000E-009
  1.043859100000000E-004  1.073684400000000E-004 -6.812760600000000E-007
  3.499188600000000E-006
   8.55468750000000       9.178681700000000E-003  2.557930100000000E-002
  4.464172500000000E-006  3.603303100000000E-004  2.163320900000000E-002
  1.218733400000000E-004  2.613957000000000E-008  2.534780600000000E-005
 -5.862760300000000E-007  3.158139600000000E-006 -2.928631200000000E-009
  9.908357000000000E-005  1.007872500000000E-004 -4.608164800000000E-007
  2.757390500000000E-006
   8.78906250000000       9.178681700000000E-003  2.519033100000000E-002
  5.660637600000000E-006  2.423181300000000E-004  2.136523100000000E-002
  1.280461800000000E-004  3.033908700000000E-008  2.527828000000000E-005
 -7.662435300000000E-007  2.591170100000000E-006 -2.096402200000000E-009
  1.037690600000000E-004  1.057067400000000E-004 -6.204103800000000E-007
  1.836072500000000E-006
   9.02343750000000       9.178681700000000E-003  2.529736600000000E-002
  7.374326000000000E-006  5.914847300000000E-005  2.144317700000000E-002
  1.358029200000000E-004  3.002292000000000E-008  2.569670500000000E-005
 -7.713140900000000E-007  3.805271400000000E-007 -1.883981200000000E-008
  1.103899300000000E-004  1.117319300000000E-004 -5.879791200000000E-007
 -6.096590800000000E-008
   9.25781250000000       9.178681700000000E-003  2.583416700000000E-002
  1.994074400000000E-006 -8.952920300000000E-005  2.198475600000000E-002
  1.469168600000000E-004  4.818305900000000E-008  2.801135700000000E-005
 -1.262291900000000E-006  2.033624500000000E-006 -1.372722500000000E-007
  1.259005300000000E-004  1.254398200000000E-004 -1.136032200000000E-006
  2.062896200000000E-006
   9.49218750000000       9.178681700000000E-003  2.673327400000000E-002
 -4.243771100000000E-006 -8.736240500000000E-005  2.260175500000000E-002
  1.492746600000000E-004  3.440947600000000E-008  3.069174500000000E-005
 -9.008018500000000E-007  2.483045200000000E-007  1.014744300000000E-007
  1.225241200000000E-004  1.246997900000000E-004 -7.012288500000000E-007
  1.005303900000000E-006
   9.72656250000000       9.178681700000000E-003  2.686281500000000E-002
 -4.149968800000000E-006  1.022486900000000E-005  2.265892900000000E-002
  1.359723400000000E-004  3.401569500000000E-008  2.715952600000000E-005
 -8.892123300000000E-007 -1.868220400000000E-006  5.246448700000000E-008
  1.128474500000000E-004  1.130833800000000E-004 -6.987209000000000E-007
 -1.574757700000000E-006
   9.96093750000000       9.178681700000000E-003  2.660586900000000E-002
 -4.056293400000000E-006  1.288836800000000E-004  2.243762200000000E-002
  1.360868300000000E-004  2.877361800000000E-008  2.535026500000000E-005
 -8.564939400000000E-007 -2.000032900000000E-006  5.571550100000000E-008
  1.093061700000000E-004  1.119071200000000E-004 -7.011456200000000E-007
 -1.403774400000000E-006
   10.1953120000000       9.178681700000000E-003  2.610997900000000E-002
  3.226127300000000E-006  1.728863000000000E-004  2.209371300000000E-002
  1.348462100000000E-004  2.783613300000000E-008  2.443183800000000E-005
 -8.809945100000000E-007  2.931059700000000E-006 -3.082180300000000E-008
  1.119698600000000E-004  1.132864600000000E-004 -7.459985700000000E-007
  2.663550900000000E-006
   10.4296880000000       9.178681700000000E-003  2.608909100000000E-002
  2.352130100000000E-006  1.236185300000000E-004  2.198521000000000E-002
  1.317660300000000E-004  3.090802400000000E-008  2.632978500000000E-005
 -7.964101300000000E-007  4.803518100000000E-006 -4.381538700000000E-008
  1.063562400000000E-004  1.082384600000000E-004 -6.392159900000000E-007
  4.004840600000000E-006
   10.6640620000000       9.178681700000000E-003  2.629016700000000E-002
 -2.155657700000000E-006  1.127731500000000E-004  2.206689100000000E-002
  1.343319800000000E-004  3.324636900000000E-008  2.645849400000000E-005
 -8.472539000000000E-007  6.756230500000000E-007  4.118570300000000E-008
  1.079952000000000E-004  1.108266100000000E-004 -6.893830700000000E-007
  2.086293200000000E-007
   10.8984380000000       9.178681700000000E-003  2.592412900000000E-002
  3.047275400000000E-008  1.359596200000000E-004  2.176671600000000E-002
  1.322292100000000E-004  3.322571100000000E-008  2.526046800000000E-005
 -9.126882000000000E-007  9.441042800000000E-007  1.706229300000000E-009
  1.039496100000000E-004  1.077037500000000E-004 -7.309062300000000E-007
  2.158209500000000E-007
   11.1328120000000       9.178681700000000E-003  2.528631700000000E-002
  6.499394500000000E-006  5.329401800000000E-005  2.135983000000000E-002
  1.250217800000000E-004  2.782443000000000E-008  2.644124800000000E-005
 -6.921913900000000E-007  1.441580500000000E-006 -2.653497900000000E-008
  1.003958300000000E-004  1.027823400000000E-004 -5.525638000000000E-007
  7.730115900000000E-007
   11.3671880000000       9.178681700000000E-003  2.543349300000000E-002
  5.633978200000000E-006 -1.109402800000000E-004  2.154577500000000E-002
  1.310682900000000E-004  3.171874300000000E-008  2.593347300000000E-005
 -8.337610500000000E-007 -1.303314800000000E-006  3.287117400000000E-008
  1.067379700000000E-004  1.088116300000000E-004 -6.753010100000000E-007
 -1.468711600000000E-006
   11.6015620000000       9.178681700000000E-003  2.605306500000000E-002
 -4.348232000000000E-006 -1.376438000000000E-004  2.192259800000000E-002
  1.355228600000000E-004  2.941682000000000E-008  2.586017900000000E-005
 -8.971790900000000E-007 -8.868504300000000E-007  4.378477900000000E-009
  1.066494800000000E-004  1.090808600000000E-004 -6.807321200000000E-007
 -1.441943700000000E-006
   11.8359380000000       9.178681700000000E-003  2.622638300000000E-002
 -4.361503900000000E-006 -2.489344900000000E-005  2.208434200000000E-002
  1.269676500000000E-004  2.869363200000000E-008  2.545088200000000E-005
 -7.423470400000000E-007 -1.125501300000000E-006  4.752669600000000E-008
  1.060097200000000E-004  1.055760700000000E-004 -6.112786600000000E-007
 -1.102665800000000E-006
   12.0703120000000       9.178681700000000E-003  2.589650500000000E-002
 -1.866577400000000E-006  5.903282000000000E-005  2.178557300000000E-002
  1.349267200000000E-004  2.893021200000000E-008  2.466580300000000E-005
 -8.572538400000000E-007 -6.846441200000000E-007 -3.169907500000000E-009
  1.034518100000000E-004  1.082325900000000E-004 -6.238940500000000E-007
 -1.075800200000000E-006
   12.3046880000000       9.178681700000000E-003  2.575077400000000E-002
  1.396419600000000E-006  6.484277800000000E-005  2.172644500000000E-002
  1.281271800000000E-004  2.715582600000000E-008  2.461441600000000E-005
 -8.020812600000000E-007 -5.892651000000000E-007  1.651336900000000E-008
  1.048637200000000E-004  1.063165800000000E-004 -6.729261600000000E-007
 -4.049908300000000E-007
   12.5390620000000       9.178681700000000E-003  2.613800500000000E-002
  4.609903600000000E-006 -6.610951600000000E-006  2.198704300000000E-002
  1.256417100000000E-004  2.883602900000000E-008  2.624489500000000E-005
 -8.088258000000000E-007  2.490900600000000E-006 -6.966291500000000E-008
  1.014306000000000E-004  1.032921400000000E-004 -6.518803200000000E-007
  2.515130400000000E-006
   12.7734380000000       9.178681700000000E-003  2.639501400000000E-002
  3.708082900000000E-006 -1.087915400000000E-004  2.220889800000000E-002
  1.193280000000000E-004  2.993994600000000E-008  2.714405200000000E-005
 -6.232448700000001E-007 -1.589343600000000E-006  4.097574400000000E-008
  9.752200700000000E-005  9.737814800000001E-005 -4.855556300000000E-007
 -1.233186500000000E-006
   13.0078120000000       9.178681700000000E-003  2.652787000000000E-002
 -5.370738700000000E-006 -8.638131600000000E-005  2.238969400000000E-002
  1.442817900000000E-004  3.425050100000000E-008  2.488891900000000E-005
 -1.077419600000000E-006 -1.021008500000000E-006  1.131075000000000E-008
  1.135810900000000E-004  1.178475900000000E-004 -8.552985400000000E-007
 -8.333075900000000E-007
   13.2421880000000       9.178681700000000E-003  2.648582400000000E-002
 -8.250645300000000E-006  9.831653900000000E-005  2.233256000000000E-002
  1.412668700000000E-004  3.439886300000000E-008  2.471042500000000E-005
 -9.594382600000000E-007  3.954189900000000E-006 -7.975641200000000E-009
  1.161533700000000E-004  1.175896700000000E-004 -8.161526600000000E-007
  3.653146800000000E-006
   13.4765620000000       9.178681700000000E-003  2.610286800000000E-002
 -1.362862100000000E-006  2.340513200000000E-004  2.195438900000000E-002
  1.310408200000000E-004  2.991292200000000E-008  2.539723700000000E-005
 -7.408371400000000E-007  2.063642100000000E-006  1.336090800000000E-008
  1.063344700000000E-004  1.076984400000000E-004 -5.758242200000000E-007
  2.216013800000000E-006
   13.7109380000000       9.178681700000000E-003  2.522868500000000E-002
  1.116391200000000E-005  1.031690700000000E-004  2.127466000000000E-002
  1.205598300000000E-004  3.096926100000000E-008  2.519009300000000E-005
 -7.330159600000000E-007 -3.484832300000000E-007 -2.539837300000000E-009
  9.828360200000000E-005  9.963140200000000E-005 -6.009301600000000E-007
  4.830926000000000E-007
   13.9453120000000       9.178681700000000E-003  2.533952600000000E-002
  4.593460500000000E-006 -1.129000600000000E-004  2.133624200000000E-002
  1.254193000000000E-004  3.353127900000000E-008  2.603494800000000E-005
 -8.935203299999999E-007 -2.113824100000000E-006 -4.003783800000000E-008
  9.572485200000000E-005  1.003768700000000E-004 -6.846123400000000E-007
 -8.619469600000000E-007
   14.1796880000000       9.178681700000000E-003  2.575836300000000E-002
 -3.057728300000000E-006 -1.437748400000000E-004  2.161775600000000E-002
  1.313284300000000E-004  3.284337800000000E-008  2.579869600000000E-005
 -8.969522600000000E-007 -2.194107800000000E-006  2.994840900000000E-008
  9.955771100000000E-005  1.034524200000000E-004 -6.633553100000000E-007
 -9.688334000000000E-007
   14.4140620000000       9.178681700000000E-003  2.590632800000000E-002
 -5.762533700000000E-007 -1.129020400000000E-004  2.180249400000000E-002
  1.247879700000000E-004  2.799702300000000E-008  2.464002200000000E-005
 -7.542869300000000E-007 -2.996408800000000E-006  4.034396800000000E-008
  1.008046500000000E-004  1.022871400000000E-004 -6.248559800000000E-007
 -1.699804900000000E-006
   14.6484380000000       9.178681700000000E-003  2.603545000000000E-002
 -1.475036800000000E-006 -9.648263400000000E-005  2.187640900000000E-002
  1.340948900000000E-004  2.830647400000000E-008  2.394211700000000E-005
 -8.001800900000000E-007 -2.683899100000000E-006 -2.026726900000000E-008
  1.025656300000000E-004  1.074936700000000E-004 -6.297817400000000E-007
 -1.753989800000000E-006
   14.8828120000000       9.178681700000000E-003  2.580069600000000E-002
  2.065041800000000E-006 -9.842072900000000E-005  2.162517300000000E-002
  1.369179700000000E-004  3.008779900000000E-008  2.459597300000000E-005
 -9.095858200000000E-007 -2.053647100000000E-006 -8.634574599999999E-009
  1.014993500000000E-004  1.080547200000000E-004 -6.764905800000000E-007
 -2.389369400000000E-006
   15.1171880000000       9.178681700000000E-003  2.547690600000000E-002
  5.407083700000000E-006 -1.806488600000000E-004  2.142060200000000E-002
  1.307441100000000E-004  3.141269900000000E-008  2.363819900000000E-005
 -9.357541599999999E-007 -1.331905500000000E-006  4.173033000000000E-008
  1.035253700000000E-004  1.064644000000000E-004 -7.369575900000000E-007
 -1.661757800000000E-006
   15.3515620000000       9.178681700000000E-003  2.530719900000000E-002
  4.274898100000000E-006 -2.985730200000000E-004  2.136520300000000E-002
  1.259896400000000E-004  2.656063800000000E-008  2.377148700000000E-005
 -7.603288600000000E-007 -9.547013500000000E-007 -1.889909800000000E-008
  1.006550200000000E-004  1.032983100000000E-004 -6.131765900000000E-007
 -1.738191600000000E-006
   15.5859380000000       9.178681700000000E-003  2.604963900000000E-002
 -9.265351800000000E-006 -2.496693300000000E-004  2.197611000000000E-002
  1.394849300000000E-004  2.938886300000000E-008  2.328909300000000E-005
 -9.309190400000000E-007 -1.109631400000000E-006  3.125520500000000E-008
  1.091237200000000E-004  1.133812500000000E-004 -7.378242000000000E-007
 -1.433128200000000E-006
   15.8203120000000       9.178681700000000E-003  2.598761200000000E-002
 -5.275401000000000E-006 -8.613740999999999E-005  2.201151800000000E-002
  1.293104600000000E-004  2.584870100000000E-008  2.259828500000000E-005
 -7.744194900000000E-007 -1.811216300000000E-006  2.453117800000000E-008
  1.046785800000000E-004  1.070631800000000E-004 -6.511041500000000E-007
 -1.759456300000000E-006
   16.0546880000000       9.178681700000000E-003  2.558387900000000E-002
  7.759379600000000E-007 -3.272742800000000E-005  2.173835900000000E-002
  1.222949200000000E-004  2.567905700000000E-008  2.311888800000000E-005
 -6.853652900000000E-007  1.016218600000000E-006 -5.670840400000000E-008
  1.018306300000000E-004  1.026100300000000E-004 -5.677581800000000E-007
  6.721235500000000E-007
   16.2890620000000       9.178681700000000E-003  2.556534000000000E-002
  2.877518500000000E-006 -7.988144100000000E-005  2.170211300000000E-002
  1.210321400000000E-004  2.280029300000000E-008  2.540615100000000E-005
 -6.170910800000000E-007  4.224198000000000E-007 -2.643629300000000E-008
  1.025019500000000E-004  1.018338900000000E-004 -5.106010500000000E-007
 -2.341488700000000E-007
   16.5234380000000       9.178681700000000E-003  2.588092900000000E-002
  1.550042700000000E-007 -1.292982200000000E-004  2.189875300000000E-002
  1.302444100000000E-004  2.764256200000000E-008  2.627887100000000E-005
 -7.899902000000000E-007 -1.523444600000000E-007 -4.586796600000000E-008
  1.082099900000000E-004  1.080714100000000E-004 -6.395221900000000E-007
 -5.620960800000000E-007
   16.7578120000000       9.178681700000000E-003  2.661606800000000E-002
 -6.437486600000000E-006 -5.719132400000000E-005  2.244819400000000E-002
  1.339393900000000E-004  3.025220900000000E-008  2.642657500000000E-005
 -8.587945100000000E-007 -1.014608100000000E-006  1.377060100000000E-008
  1.111310600000000E-004  1.122093500000000E-004 -7.192953600000000E-007
 -1.900375900000000E-007
   16.9921880000000       9.178681700000000E-003  2.650922000000000E-002
 -3.744223400000000E-006  6.536683400000000E-005  2.238693400000000E-002
  1.347356300000000E-004  3.075835900000000E-008  2.723393500000000E-005
 -8.423395800000000E-007  2.045867500000000E-006 -3.545577800000000E-008
  1.118316200000000E-004  1.125281900000000E-004 -6.871277500000000E-007
  2.114477700000000E-006
   17.2265620000000       9.178681700000000E-003  2.607392200000000E-002
  9.176335000000000E-007  8.720079700000001E-005  2.206299600000000E-002
  1.379291000000000E-004  3.409959700000000E-008  2.790614500000000E-005
 -8.871146400000000E-007  1.811146300000000E-006 -6.398088700000000E-009
  1.117953500000000E-004  1.137977600000000E-004 -6.754225000000000E-007
  1.886917600000000E-006
   17.4609380000000       9.178681700000000E-003  2.587294900000000E-002
  8.517959799999999E-006 -5.032953600000000E-005  2.194612600000000E-002
  1.261341000000000E-004  2.776004800000000E-008  2.876481200000000E-005
 -6.517261800000000E-007 -1.612673400000000E-006  4.603142700000000E-009
  1.057513700000000E-004  1.057862200000000E-004 -5.285246900000000E-007
 -1.939619100000000E-006
   17.6953120000000       9.178681700000000E-003  2.611608400000000E-002
  1.071206500000000E-006 -1.743858800000000E-004  2.213919200000000E-002
  1.297985000000000E-004  3.108709900000000E-008  2.602642200000000E-005
 -9.109700900000000E-007 -3.480197000000000E-006  8.071859700000000E-008
  1.063937900000000E-004  1.083147000000000E-004 -7.738709000000000E-007
 -2.758761000000000E-006
   17.9296880000000       9.178681700000000E-003  2.616997200000000E-002
 -1.583474200000000E-006 -1.572635500000000E-004  2.220215800000000E-002
  1.196159900000000E-004  2.663396500000000E-008  2.514945200000000E-005