 variables=Z,Y,U,V,W,T,UU,VV,WW,UV,UW,VW,TT,UT,VT,WT
 ZONE I =         152 , J=          54
  7.401315800000000E-002  9.178681700000000E-003  3.790284100000000E-002
  5.059374700000000E-006  2.776690500000000E-004  3.269269700000000E-002
  2.917219400000000E-004  1.557136000000000E-007  6.328401000000000E-005
 -2.830013400000000E-006 -6.575170600000000E-006  3.325600000000000E-008
  2.554856100000000E-004  2.499053300000000E-004 -2.539955600000000E-006
 -4.422933500000000E-006
  0.222039470000000       9.178681700000000E-003  3.785822200000000E-002
  3.147036700000000E-006  2.141238200000000E-004  3.258687500000000E-002
  2.918009900000000E-004  1.609569600000000E-007  6.190589000000001E-005
 -3.083834500000000E-006 -5.444672800000000E-006 -6.858715700000000E-008
  2.459672900000000E-004  2.437869500000000E-004 -2.485222100000000E-006
 -3.646487100000000E-006
  0.370065790000000       9.178681700000000E-003  3.782679200000000E-002
  3.340349000000000E-006  1.658367800000000E-004  3.249692200000000E-002
  3.066941800000000E-004  1.585768700000000E-007  6.036930000000000E-005
 -3.163438300000000E-006 -4.078812500000000E-006  3.430510200000000E-008
  2.526435900000000E-004  2.535978400000000E-004 -2.492002600000000E-006
 -3.996593600000000E-006
  0.518092110000000       9.178681700000000E-003  3.767015500000000E-002
  2.855904300000000E-006  1.273471300000000E-004  3.246851300000000E-002
  2.903955900000000E-004  1.547355900000000E-007  5.969522600000000E-005
 -2.889567100000000E-006 -3.019404800000000E-006  5.895604200000000E-008
  2.511510200000000E-004  2.460690800000000E-004 -2.490146500000000E-006
 -3.794057100000000E-006
  0.666118420000000       9.178681700000000E-003  3.753347600000000E-002
 -2.395725300000000E-006  1.578787200000000E-004  3.233934600000000E-002
  2.922231300000000E-004  1.606407800000000E-007  5.943461300000000E-005
 -3.052725600000000E-006  2.015747800000000E-006 -8.501685800000000E-008
  2.545907300000000E-004  2.507681500000000E-004 -2.723348800000000E-006
  6.375159600000000E-007
  0.814144740000000       9.178681700000000E-003  3.722955700000000E-002
  3.261962300000000E-006  1.890774100000000E-004  3.211384400000000E-002
  2.853702600000000E-004  1.432028400000000E-007  6.102469600000000E-005
 -2.211307300000000E-006  2.171149900000000E-006  1.380095000000000E-008
  2.437260800000000E-004  2.423904600000000E-004 -1.840111800000000E-006
  8.000355000000000E-007
  0.962171050000000       9.178681700000000E-003  3.716436200000000E-002
  6.599690700000000E-006  1.114629500000000E-004  3.212025600000000E-002
  3.176654900000000E-004  1.948536500000000E-007  5.927742700000000E-005
 -3.654855100000000E-006  2.177716700000000E-006 -8.443696500000000E-008
  2.689486300000000E-004  2.701950400000000E-004 -3.087622900000000E-006
  4.836995300000000E-007
   1.11019740000000       9.178681700000000E-003  3.744915500000000E-002
  3.560790200000000E-006  6.582779300000000E-006  3.232865500000000E-002
  3.132701100000000E-004  1.712920200000000E-007  6.151941100000000E-005
 -3.387851500000000E-006  3.463775200000000E-006  8.845497800000001E-008
  2.699618600000000E-004  2.681648900000000E-004 -2.866167500000000E-006
  3.311741400000000E-006
   1.25822370000000       9.178681700000000E-003  3.788832600000000E-002
 -8.176625800000000E-006  2.347030400000000E-005  3.252052300000000E-002
  3.077598100000000E-004  1.738278000000000E-007  5.868616100000000E-005
 -3.291247400000000E-006  3.761141200000000E-006  1.293820600000000E-007
  2.570051600000000E-004  2.578461000000000E-004 -2.727162400000000E-006
  3.745206200000000E-006
   1.40625000000000       9.178681700000000E-003  3.761123100000000E-002
  6.445309600000000E-006  3.717878300000000E-005  3.234065700000000E-002
  2.742365400000000E-004  1.379241800000000E-007  5.870170800000000E-005
 -2.332747700000000E-006  6.437943800000000E-007  3.133251400000000E-008
  2.351564400000000E-004  2.318126900000000E-004 -1.909616700000000E-006
  1.126450300000000E-006
   1.55427630000000       9.178681700000000E-003  3.756729700000000E-002
  3.094607700000000E-006 -2.332977300000000E-005  3.249204900000000E-002
  2.862888400000000E-004  1.747728000000000E-007  5.603922000000000E-005
 -3.185658200000000E-006 -2.843752000000000E-006 -2.295262400000000E-008
  2.522084100000000E-004  2.463425800000000E-004 -2.811296500000000E-006
 -2.412914800000000E-006
   1.70230260000000       9.178681700000000E-003  3.812317000000000E-002
 -5.266841500000000E-006  1.393134100000000E-005  3.290991800000000E-002
  3.026953000000000E-004  1.524076700000000E-007  5.781663600000000E-005
 -3.252904600000000E-006  5.410505000000000E-006 -6.574861099999999E-008
  2.594154800000000E-004  2.565636100000000E-004 -2.741305500000000E-006
  5.287073200000000E-006
   1.85032890000000       9.178681700000000E-003  3.821617000000000E-002
  6.261343400000000E-006  1.186549100000000E-005  3.304292700000000E-002
  2.616983900000000E-004  1.581530300000000E-007  5.931632900000000E-005
 -2.590849300000000E-006  7.108447400000000E-006  2.697019000000000E-008
  2.294919400000000E-004  2.231675000000000E-004 -2.220973100000000E-006
  6.070767600000000E-006
   1.99835530000000       9.178681700000000E-003  3.874170100000000E-002
  3.050628600000000E-006 -6.901845200000001E-005  3.351642200000000E-002
  2.620879600000000E-004  1.584630600000000E-007  5.970425200000000E-005
 -2.422564800000000E-006 -1.470056200000000E-006 -2.409394500000000E-008
  2.346288300000000E-004  2.254957500000000E-004 -2.172831300000000E-006
 -3.818363100000000E-008
   2.14638160000000       9.178681700000000E-003  3.916719000000000E-002
 -1.061548400000000E-005 -6.175304400000000E-006  3.376562500000000E-002
  3.028559800000000E-004  1.558456600000000E-007  5.921071500000000E-005
 -3.282410100000000E-006 -3.429690200000000E-006  5.307715900000000E-008
  2.581355300000000E-004  2.565808300000000E-004 -2.820693800000000E-006
 -1.491188100000000E-006
   2.29440790000000       9.178681700000000E-003  3.881727600000000E-002
 -1.852961900000000E-005  2.277343300000000E-004  3.341562100000000E-002
  2.876379200000000E-004  1.465207400000000E-007  5.802495800000000E-005
 -3.110547400000000E-006  3.660477000000000E-006  5.419815500000000E-008
  2.455933700000000E-004  2.428300600000000E-004 -2.677284900000000E-006
  5.016645900000000E-006
   2.44243420000000       9.178681700000000E-003  3.731421500000000E-002
  1.013479600000000E-005  2.878331400000000E-004  3.226431800000000E-002
  2.418807400000000E-004  1.219007700000000E-007  5.443901400000000E-005
 -1.981708000000000E-006  1.294869400000000E-006  1.899261700000000E-007
  2.038068700000000E-004  2.012880300000000E-004 -1.624726900000000E-006
  2.593906400000000E-006
   2.59046050000000       9.178681700000000E-003  3.692309900000000E-002
  7.234077600000000E-006  1.399805700000000E-004  3.194682100000000E-002
  2.538700500000000E-004  1.304451500000000E-007  5.179516700000000E-005
 -2.430242900000000E-006 -9.746561300000001E-007 -8.077100100000001E-008
  2.068174400000000E-004  2.075985000000000E-004 -1.902020200000000E-006
 -4.179769600000000E-008
   2.73848680000000       9.178681700000000E-003  3.747950700000000E-002
  9.928884400000001E-007  7.254202799999999E-005  3.242302500000000E-002
  2.640243500000000E-004  1.327037900000000E-007  5.546004400000000E-005
 -2.508998300000000E-006 -5.648736800000000E-007 -1.335824100000000E-007
  2.250825200000000E-004  2.222681700000000E-004 -2.099208600000000E-006
 -2.093023300000000E-007
   2.88651320000000       9.178681700000000E-003  3.815957000000000E-002
 -7.555925800000000E-007  5.978201400000000E-005  3.296948100000000E-002
  2.690380000000000E-004  1.520970800000000E-007  5.850292800000000E-005
 -2.800170900000000E-006 -5.318612400000001E-007 -6.994318999999999E-008
  2.315765100000000E-004  2.272208700000000E-004 -2.350690700000000E-006
 -4.746967400000000E-007
   3.03453950000000       9.178681700000000E-003  3.829972000000000E-002
  3.951793600000000E-006  9.676048699999999E-006  3.314463600000000E-002
  2.697962800000000E-004  1.390827500000000E-007  5.962753500000000E-005
 -2.552291000000000E-006 -4.161788600000000E-006  6.126461300000000E-008
  2.441521500000000E-004  2.325889100000000E-004 -2.195829600000000E-006
 -3.261611000000000E-006
   3.18256580000000       9.178681700000000E-003  3.843727700000000E-002
 -3.803806700000000E-006  7.804373300000000E-006  3.320752700000000E-002
  2.862373500000000E-004  1.428959500000000E-007  5.761701100000000E-005
 -2.870989100000000E-006 -2.940253600000000E-006  1.373181400000000E-008
  2.537698700000000E-004  2.449698300000000E-004 -2.482548200000000E-006
 -1.106283000000000E-007
   3.33059210000000       9.178681700000000E-003  3.811627900000000E-002
  6.309851200000000E-006  1.966102200000000E-005  3.286116800000000E-002
  2.782301900000000E-004  1.593040200000000E-007  5.725138900000000E-005
 -2.795414300000000E-006  2.473760300000000E-006 -1.913525200000000E-008
  2.431596300000000E-004  2.361124800000000E-004 -2.285651800000000E-006
  3.764293800000000E-006
   3.47861840000000       9.178681700000000E-003  3.832194000000000E-002
 -5.975156000000000E-007 -2.900468100000000E-006  3.298746600000000E-002
  2.906785400000000E-004  1.673425400000000E-007  5.910545500000000E-005
 -2.875484900000000E-006  3.153128800000000E-006 -7.154172400000000E-008
  2.472230400000000E-004  2.423975500000000E-004 -2.388210800000000E-006
  1.934362600000000E-006
   3.62664470000000       9.178681700000000E-003  3.840006000000000E-002
  1.001866300000000E-006 -2.399867800000000E-005  3.301279500000000E-002
  2.749381700000000E-004  1.710143600000000E-007  6.147377000000000E-005
 -2.537974200000000E-006 -3.711293300000000E-008 -4.141773800000000E-008
  2.347398300000000E-004  2.291965100000000E-004 -2.082715400000000E-006
 -2.008593300000000E-007
   3.77467110000000       9.178681700000000E-003  3.854622900000000E-002
 -9.335887200000000E-007 -3.671438100000000E-005  3.306856700000000E-002
  2.955068600000000E-004  1.973604000000000E-007  5.786894900000000E-005
 -3.462868600000000E-006 -4.305316800000000E-006  2.521650500000000E-007
  2.440610600000000E-004  2.436923500000000E-004 -2.675377600000000E-006
 -4.666714900000000E-006
   3.92269740000000       9.178681700000000E-003  3.786485000000000E-002
  2.173835300000000E-006 -3.842062900000000E-005  3.262166000000000E-002
  2.752223900000000E-004  1.592683300000000E-007  5.720923500000000E-005
 -2.819979200000000E-006  6.460488800000000E-007 -1.341190600000000E-007
  2.396892500000000E-004  2.335048900000000E-004 -2.402334800000000E-006
 -6.065848600000000E-007
   4.07072370000000       9.178681700000000E-003  3.786658800000000E-002
  1.269285200000000E-006 -7.327893000000000E-005  3.263844400000000E-002
  2.795023200000000E-004  1.536635400000000E-007  6.114515800000000E-005
 -2.723729600000000E-006 -3.692613400000000E-006 -8.852098699999999E-008
  2.502056000000000E-004  2.407621100000000E-004 -2.414661700000000E-006
 -1.886270000000000E-006
   4.21875000000000       9.178681700000000E-003  3.784587700000000E-002
  3.057821000000000E-006 -1.297427800000000E-004  3.256132000000000E-002
  3.026725000000000E-004  1.544185500000000E-007  6.224941900000000E-005
 -3.033035000000000E-006 -4.232007700000000E-006  1.175932300000000E-008
  2.568722500000000E-004  2.550839200000000E-004 -2.609632100000000E-006
 -2.199869800000000E-006
   4.36677630000000       9.178681700000000E-003  3.822937000000000E-002
 -6.664697700000000E-006 -1.272780700000000E-004  3.284636200000000E-002
  3.128481000000000E-004  1.706531100000000E-007  5.891290200000000E-005
 -3.338708500000000E-006 -3.632858400000000E-006  8.232486900000001E-008
  2.542843700000000E-004  2.577352700000000E-004 -2.617795400000000E-006
 -2.291101300000000E-006
   4.51480260000000       9.178681700000000E-003  3.870135600000000E-002
 -1.637767900000000E-005  3.432267300000000E-005  3.316287400000000E-002
  3.191347100000000E-004  1.702615300000000E-007  5.830294800000000E-005
 -3.318310100000000E-006 -9.609764100000000E-007 -8.997073000000001E-008
  2.599255400000000E-004  2.636407800000000E-004 -2.658133300000000E-006
 -1.881487400000000E-006
   4.66282890000000       9.178681700000000E-003  3.799070000000000E-002
 -6.947022200000000E-006  2.062878800000000E-004  3.271080000000000E-002
  3.079008600000000E-004  1.638103500000000E-007  5.664064900000000E-005
 -3.440437300000000E-006 -2.644843400000000E-006  2.679327400000000E-007
  2.544895900000000E-004  2.576076700000000E-004 -2.815518900000000E-006
 -2.605819000000000E-006
   4.81085530000000       9.178681700000000E-003  3.707562900000000E-002
  1.533797800000000E-005  1.233804200000000E-004  3.212464000000000E-002
  2.730574800000000E-004  1.521739800000000E-007  5.518480500000000E-005
 -2.678607600000000E-006  3.241130300000000E-006 -1.148057400000000E-007
  2.289762200000000E-004  2.294705300000000E-004 -2.196888200000000E-006
  2.468290600000000E-006
   4.95888160000000       9.178681700000000E-003  3.771941100000000E-002
 -3.998805200000000E-006  7.054248500000000E-006  3.254239200000000E-002
  2.982858100000000E-004  1.460793700000000E-007  5.763442500000000E-005
 -2.985045800000000E-006 -1.766389800000000E-008 -2.450127600000000E-008
  2.470626300000000E-004  2.482845500000000E-004 -2.399564200000000E-006
 -7.044735900000000E-008
   5.10690790000000       9.178681700000000E-003  3.806826600000000E-002
 -5.889971300000000E-006  6.269229200000000E-005  3.277581800000000E-002
  2.797984800000000E-004  1.569982800000000E-007  6.087917900000000E-005
 -2.829513200000000E-006 -5.639655900000000E-007 -1.531975700000000E-007
  2.472235500000000E-004  2.402492500000000E-004 -2.540266500000000E-006
 -1.631403900000000E-007
   5.25493420000000       9.178681700000000E-003  3.799808700000000E-002
  1.555973300000000E-006  9.483536600000000E-005  3.277323600000000E-002
  2.905557600000000E-004  1.615948700000000E-007  6.099678700000000E-005
 -2.883176300000000E-006 -9.719095700000001E-006  9.294925700000000E-008
  2.513661600000000E-004  2.472141400000000E-004 -2.415047400000000E-006
 -6.639902100000000E-006
   5.40296050000000       9.178681700000000E-003  3.790711900000000E-002
 -1.831695300000000E-006  1.239976900000000E-004  3.270844200000000E-002
  2.956800800000000E-004  1.561049100000000E-007  5.975167900000000E-005
 -2.937193200000000E-006 -4.225585300000000E-006 -5.521861500000000E-008
  2.579102600000000E-004  2.533925000000000E-004 -2.563915700000000E-006
 -2.090774100000000E-006
   5.55098680000000       9.178681700000000E-003  3.809408700000000E-002
 -1.738052800000000E-006  1.923072800000000E-004  3.281934000000000E-002
  3.162617400000000E-004  1.823111700000000E-007  6.305625599999999E-005
 -3.268515600000000E-006  1.414446100000000E-006 -2.662821100000000E-007
  2.664220900000000E-004  2.655404700000000E-004 -2.563022200000000E-006
  2.947430100000000E-006
   5.69901320000000       9.178681700000000E-003  3.761351000000000E-002
  1.820317200000000E-005  8.977522500000000E-005  3.251313800000000E-002
  3.080237200000000E-004  1.787021000000000E-007  6.498766400000000E-005
 -2.967628100000000E-006 -7.275190300000000E-006  2.067799800000000E-007
  2.608851600000000E-004  2.604121400000000E-004 -2.385369300000000E-006
 -6.856621800000000E-006
   5.84703950000000       9.178681700000000E-003  3.735460600000000E-002
  9.337520699999999E-006 -1.193905600000000E-004  3.236592400000000E-002
  3.192111800000000E-004  1.904048900000000E-007  6.091020600000000E-005
 -3.532255500000000E-006 -3.898737500000000E-006  3.482079000000000E-008
  2.780057300000000E-004  2.726816700000000E-004 -2.928516600000000E-006
 -6.240106300000000E-006
   5.99506580000000       9.178681700000000E-003  3.787707700000000E-002
 -9.996447099999999E-007 -2.035162100000000E-004  3.275603700000000E-002
  3.281372400000000E-004  1.797155300000000E-007  6.317498100000000E-005
 -3.179626300000000E-006  1.942251600000000E-006 -1.497720900000000E-007
  2.933501000000000E-004  2.836503500000000E-004 -2.988414600000000E-006
  1.704141200000000E-007
   6.14309210000000       9.178681700000000E-003  3.831565600000000E-002
  3.034819400000000E-006 -2.596159800000000E-004  3.301533900000000E-002
  3.021802500000000E-004  1.707902200000000E-007  6.404806200000000E-005
 -2.863579500000000E-006 -3.181189400000000E-006  5.780876200000000E-008
  2.562502600000000E-004  2.529407500000000E-004 -2.450092600000000E-006
 -1.232717300000000E-006
   6.29111840000000       9.178681700000000E-003  3.849963800000000E-002
 -6.285554600000000E-006 -2.483185800000000E-004  3.310783300000000E-002
  3.190943300000000E-004  1.547797600000000E-007  6.020380700000000E-005
 -3.460764700000000E-006 -2.680904000000000E-006  9.042566900000000E-008
  2.656936400000000E-004  2.662364600000000E-004 -2.915782700000000E-006
 -2.198837800000000E-006
   6.43914470000000       9.178681700000000E-003  3.853663200000000E-002
 -2.715793700000000E-006 -1.620858900000000E-004  3.313233900000000E-002
  2.961737900000000E-004  1.514558600000000E-007  5.932658600000000E-005
 -2.853228300000000E-006  5.068893900000000E-006 -1.022175400000000E-007
  2.503383400000000E-004  2.503644500000000E-004 -2.463007500000000E-006
  3.970272100000000E-006
   6.58717110000000       9.178681700000000E-003  3.883605800000000E-002
  9.024715800000001E-006 -2.052862200000000E-004  3.333519700000000E-002
  2.718564100000000E-004  1.463933200000000E-007  6.283961000000000E-005
 -2.252986300000000E-006  1.028143500000000E-008 -1.177688000000000E-007
  2.322309400000000E-004  2.292152700000000E-004 -1.877612800000000E-006
  5.963642800000000E-008
   6.73519740000000       9.178681700000000E-003  3.934925500000000E-002
 -2.915324800000000E-006 -2.618068000000000E-004  3.371669200000000E-002
  3.050596300000000E-004  1.573901500000000E-007  6.720103800000001E-005
 -3.132022500000000E-006 -3.122324100000000E-006 -1.626122700000000E-007
  2.532963100000000E-004  2.536857000000000E-004 -2.558836900000000E-006
 -2.032356600000000E-006
   6.88322370000000       9.178681700000000E-003  3.943260400000000E-002
 -2.822727000000000E-006 -2.133305300000000E-004  3.384647800000000E-002
  3.005818600000000E-004  1.566561900000000E-007  6.714898400000000E-005
 -2.815788100000000E-006 -5.986498300000000E-006  9.582151000000001E-008
  2.494281300000000E-004  2.498842900000000E-004 -2.274843800000000E-006
 -5.402724400000000E-006
   7.03125000000000       9.178681700000000E-003  3.905135100000000E-002
 -1.262639900000000E-006 -1.626598900000000E-004  3.365200000000000E-002
  3.050876100000000E-004  1.616373100000000E-007  6.275348500000000E-005
 -3.288718100000000E-006 -3.716572900000000E-006  1.694994900000000E-007
  2.583091900000000E-004  2.575045800000000E-004 -2.774027800000000E-006
 -2.084659300000000E-006
   7.17927630000000       9.178681700000000E-003  3.883776500000000E-002
  9.367135499999999E-006 -2.062637200000000E-004  3.353626200000000E-002
  2.890743600000000E-004  1.383028500000000E-007  6.069932500000000E-005
 -2.675865500000000E-006  1.131000400000000E-006  3.422388600000000E-008
  2.439024900000000E-004  2.437296200000000E-004 -2.238344500000000E-006
  6.107156300000000E-007
   7.32730260000000       9.178681700000000E-003  3.915018500000000E-002
 -5.817076500000000E-006 -2.170235900000000E-004  3.381999200000000E-002
  2.812534400000000E-004  1.456203400000000E-007  5.862791600000000E-005
 -2.777164100000000E-006 -6.928062200000000E-008  3.230738900000000E-008
  2.467774700000000E-004  2.408128100000000E-004 -2.404344900000000E-006
 -7.971987000000000E-007
   7.47532890000000       9.178681700000000E-003  3.953416900000000E-002
 -2.012149800000000E-005 -5.385356300000000E-007  3.414692900000000E-002
  2.985531500000000E-004  1.545212500000000E-007  5.948113600000000E-005
 -3.280938300000000E-006  4.831929000000000E-006 -1.200482200000000E-007
  2.614222100000000E-004  2.540934800000000E-004 -2.813260700000000E-006
  4.612394100000000E-006
   7.62335530000000       9.178681700000000E-003  3.913305800000000E-002
 -8.248376499999999E-008  1.754542900000000E-004  3.390192600000000E-002
  2.599091400000000E-004  1.530828000000000E-007  6.162634000000001E-005
 -2.492897100000000E-006  3.060441400000000E-006 -2.197759700000000E-008
  2.360790600000000E-004  2.235903900000000E-004 -2.203430600000000E-006
  4.344845800000000E-006
   7.77138160000000       9.178681700000000E-003  3.881177200000000E-002
 -1.258644800000000E-006  1.870099100000000E-004  3.360780100000000E-002
  2.819970500000000E-004  1.644249800000000E-007  6.151388100000000E-005
 -3.116384300000000E-006  1.574948800000000E-006  1.331280600000000E-008
  2.424602400000000E-004  2.380257100000000E-004 -2.613481700000000E-006
  1.442736500000000E-006
   7.91940790000000       9.178681700000000E-003  3.844262800000000E-002
  7.159414700000000E-006  1.198858500000000E-004  3.327956200000000E-002
  2.769627800000000E-004  1.697145300000000E-007  6.009445300000000E-005
 -3.120418400000000E-006  3.347192000000000E-006  9.149455099999999E-009
  2.414000500000000E-004  2.354768400000000E-004 -2.743009000000000E-006
  3.751926900000000E-006
   8.06743420000000       9.178681700000000E-003  3.857677000000000E-002
  3.636804300000000E-006  1.735426600000000E-005  3.333386400000000E-002
  2.782075700000000E-004  1.575499800000000E-007  6.191023200000000E-005
 -2.755793700000000E-006  1.856751700000000E-006 -5.718003800000000E-008
  2.355022000000000E-004  2.309669200000000E-004 -2.209748600000000E-006
  3.423307200000000E-006
   8.21546050000000       9.178681700000000E-003  3.881124400000000E-002
 -2.351594200000000E-007 -5.149894800000000E-006  3.343875600000000E-002
  2.837874600000000E-004  1.581768100000000E-007  6.361375400000000E-005
 -2.832566100000000E-006 -4.457713500000000E-007  1.276388700000000E-009
  2.431219400000000E-004  2.360262000000000E-004 -2.270965600000000E-006
  6.694710100000000E-007
   8.36348680000000       9.178681700000000E-003  3.844294200000000E-002
  5.406221400000000E-006 -4.791606700000000E-005  3.326113500000000E-002
  2.739263500000000E-004  1.515839400000000E-007  6.121796500000000E-005
 -2.699380300000000E-006 -4.246210200000000E-006  1.408209200000000E-007
  2.470062700000000E-004  2.358973600000000E-004 -2.335535500000000E-006
 -2.360141300000000E-006
   8.51151320000000       9.178681700000000E-003  3.819968700000000E-002
  6.792930000000000E-006 -1.582941000000000E-004  3.297811600000000E-002
  2.802637400000000E-004  1.561491500000000E-007  5.840108400000000E-005
 -2.690795800000000E-006 -3.418912400000000E-006 -5.376658100000000E-008
  2.330368500000000E-004  2.320197200000000E-004 -2.077145600000000E-006
 -3.831708700000000E-006
   8.65953950000000       9.178681700000000E-003  3.853027900000000E-002
 -8.885116900000001E-006 -1.528858000000000E-004  3.317590400000000E-002
  3.079506400000000E-004  1.624946300000000E-007  5.931007000000000E-005
 -3.085144200000000E-006 -7.235369200000000E-006 -3.268904100000000E-008
  2.608060400000000E-004  2.581434400000000E-004 -2.649471700000000E-006
 -6.882607800000000E-006
   8.80756580000000       9.178681700000000E-003  3.835263500000000E-002
 -9.895326199999999E-006  2.410678200000000E-006  3.299283100000000E-002
  3.173875600000000E-004  1.722429800000000E-007  5.536301100000000E-005
 -3.654464000000000E-006 -4.399292900000000E-006  2.011666000000000E-007
  2.594622700000000E-004  2.627157100000000E-004 -2.999400400000000E-006
 -5.083772300000000E-006
   8.95559210000000       9.178681700000000E-003  3.791898300000000E-002
  9.243338100000000E-007  9.630994499999999E-005  3.274055800000000E-002
  2.881767600000000E-004  1.498248400000000E-007  5.562694100000000E-005
 -2.902047300000000E-006  8.043539600000000E-006 -1.512281600000000E-007
  2.487895600000000E-004  2.452714500000000E-004 -2.478283400000000E-006
  5.292726900000000E-006
   9.10361840000000       9.178681700000000E-003  3.771414900000000E-002
  1.602288700000000E-005 -3.284830500000000E-005  3.263892000000000E-002
  2.673487900000000E-004  1.458962200000000E-007  6.090560500000000E-005
 -2.211328200000000E-006  1.565764900000000E-006 -1.719203800000000E-007
  2.343179000000000E-004  2.283493700000000E-004 -1.931233500000000E-006
  4.191411900000000E-007
   9.25164470000000       9.178681700000000E-003  3.829740800000000E-002
  3.177969000000000E-006 -1.778564100000000E-004  3.307918900000000E-002
  2.794511900000000E-004  1.618806400000000E-007  5.925567600000000E-005
 -2.976380500000000E-006 -8.667145400000000E-006  2.561395800000000E-007
  2.423610800000000E-004  2.374569000000000E-004 -2.584977800000000E-006
 -7.067069600000000E-006
   9.39967110000000       9.178681700000000E-003  3.860292700000000E-002
 -5.136989000000000E-006 -1.427471000000000E-004  3.335292000000000E-002
  2.649209900000000E-004  1.384287000000000E-007  5.544103700000000E-005
 -2.679963500000000E-006 -3.633868300000000E-006  4.223401200000000E-008
  2.306176000000000E-004  2.250137400000000E-004 -2.277464600000000E-006
 -2.123977900000000E-006
   9.54769740000000       9.178681700000000E-003  3.902154400000000E-002
 -1.481047700000000E-005  3.129474400000000E-005  3.364288200000000E-002
  2.736298600000000E-004  1.382002700000000E-007  5.572995900000000E-005
 -2.757004700000000E-006  1.947033500000000E-007 -3.626642000000000E-008
  2.405049600000000E-004  2.330223100000000E-004 -2.347556900000000E-006
  1.833632000000000E-006
   9.69572370000000       9.178681700000000E-003  3.871483500000000E-002
 -1.400954300000000E-005  2.743850500000000E-004  3.342920900000000E-002
  2.840046600000000E-004  1.523193600000000E-007  5.322293500000000E-005
 -2.825868800000000E-006 -4.142819000000000E-007  1.135382700000000E-007
  2.483513200000000E-004  2.425026400000000E-004 -2.366556800000000E-006
  7.395146200000000E-007
   9.84375000000000       9.178681700000000E-003  3.804970800000000E-002
  4.789443900000000E-006  3.671342400000000E-004  3.288943700000000E-002
  2.775241400000000E-004  1.508771800000000E-007  5.606232400000000E-005
 -2.747989500000000E-006  5.933750200000000E-006 -2.367899700000000E-007
  2.350351600000000E-004  2.305415500000000E-004 -2.147246300000000E-006
  6.984924700000000E-006
   9.99177630000000       9.178681700000000E-003  3.794561300000000E-002
  8.839626300000000E-006  2.669127200000000E-004  3.280226600000000E-002
  2.811599000000000E-004  1.744411700000000E-007  5.931252600000000E-005
 -2.940666700000000E-006  7.289521100000000E-007  1.898886500000000E-008
  2.426101200000000E-004  2.361248000000000E-004 -2.497659100000000E-006
  2.232162600000000E-006
   10.1398030000000       9.178681700000000E-003  3.797480500000000E-002
  3.099261300000000E-006  1.635722100000000E-004  3.279965300000000E-002
  2.645383600000000E-004  1.565373400000000E-007  6.088701800000000E-005
 -2.571769600000000E-006 -1.489551300000000E-006 -2.377499500000000E-008
  2.327336600000000E-004  2.248286600000000E-004 -2.111855200000000E-006
 -1.682921000000000E-006
   10.2878290000000       9.178681700000000E-003  3.783922800000000E-002
 -3.284138300000000E-006  1.430040100000000E-004  3.263397200000000E-002
  2.898030600000000E-004  1.568468700000000E-007  6.038393000000000E-005
 -3.036530400000000E-006 -3.217872500000000E-006  1.393321900000000E-008
  2.567958500000000E-004  2.500193000000000E-004 -2.743631400000000E-006
 -4.626079800000000E-006
   10.4358550000000       9.178681700000000E-003  3.774554800000000E-002
  2.635107700000000E-006  1.258311100000000E-004  3.253476800000000E-002
  2.924155900000000E-004  1.532099500000000E-007  6.069432600000000E-005
 -2.985803200000000E-006  3.893588000000000E-007 -5.238495500000000E-008
  2.466990900000000E-004  2.460516200000000E-004 -2.579463300000000E-006
  1.364281000000000E-007
   10.5838820000000       9.178681700000000E-003  3.809632700000000E-002
  8.954184300000001E-006  2.817041300000000E-005  3.276971400000000E-002
  2.804191100000000E-004  1.436031600000000E-007  6.107944500000000E-005
 -2.681913600000000E-006  5.749818800000000E-007  7.994010100000000E-008
  2.304384300000000E-004  2.316124800000000E-004 -2.197596000000000E-006
  5.868842700000000E-008
   10.7319080000000       9.178681700000000E-003  3.894960300000000E-002
 -2.191291800000000E-006 -1.826368300000000E-005  3.341908200000000E-002
  2.920952900000000E-004  1.544519000000000E-007  5.863302400000000E-005
 -2.976116300000000E-006 -1.610431100000000E-007  6.252044600000000E-008
  2.457610200000000E-004  2.450497800000000E-004 -2.574580400000000E-006
 -5.565300400000000E-007
   10.8799340000000       9.178681700000000E-003  3.888616100000000E-002
 -3.562696600000000E-006  3.958270200000000E-005  3.332604900000000E-002
  2.817462200000000E-004  1.415529300000000E-007  5.887024900000000E-005
 -2.778050600000000E-006 -3.504671100000000E-006  3.565670000000000E-008
  2.352801800000000E-004  2.336872600000000E-004 -2.314401400000000E-006
 -2.934544200000000E-006
   11.0279610000000       9.178681700000000E-003  3.828219100000000E-002
  3.909257900000000E-006  4.450037600000000E-005  3.296745200000000E-002
  2.700810600000000E-004  1.526543300000000E-007  5.816557500000000E-005
 -2.766702900000000E-006 -1.137920100000000E-006  3.700310900000000E-008
  2.276267400000000E-004  2.257241700000000E-004 -2.239219200000000E-006
 -1.439025100000000E-006
   11.1759870000000       9.178681700000000E-003  3.801658400000000E-002
  8.564016500000000E-006 -6.260244600000000E-005  3.281075700000000E-002
  2.687606400000000E-004  1.341769400000000E-007  5.854463200000000E-005
 -2.511503000000000E-006 -2.711101400000000E-006  3.445186400000000E-008
  2.322056100000000E-004  2.270459300000000E-004 -2.139216800000000E-006
 -1.696486200000000E-006
   11.3240130000000       9.178681700000000E-003  3.855012600000000E-002
 -2.557914200000000E-006 -1.298248100000000E-004  3.329844200000000E-002
  2.747350700000000E-004  1.473269700000000E-007  5.866321800000000E-005